# vtk DataFile Version 2.0
Cube example
ASCII
DATASET STRUCTURED_POINTS
DIMENSIONS 3 3 3
ORIGIN 0 0 0
SPACING 1 1 1
POINT_DATA 27
SCALARS scalar_name float 1
LOOKUP_TABLE default
1.0
2.0
3.0
4.0
5.0
6.0
7.0
8.0
9.0
10.0
11.0
12.0
13.0
14.0
15.0
16.0
17.0
18.0
19.0
20.0
21.0
22.0
23.0
24.0
25.0
26.0
27.0
VECTORS vector_name float
1.0 27.0 1.0
2.0 26.0 2.0
3.0 25.0 3.0
4.0 24.0 4.0
5.0 23.0 5.0
6.0 22.0 6.0
7.0 21.0 7.0
8.0 20.0 8.0
9.0 19.0 9.0
10.0 18.0 10.0
11.0 17.0 11.0
12.0 16.0 12.0
13.0 15.0 13.0
14.0 14.0 14.0
15.0 13.0 15.0
16.0 12.0 16.0
17.0 11.0 17.0
18.0 10.0 18.0
19.0 9.0 19.0
20.0 8.0 20.0
21.0 7.0 21.0
22.0 6.0 22.0
23.0 5.0 23.0
24.0 4.0 24.0
25.0 3.0 25.0
26.0 2.0 26.0
27.0 1.0 27.0
